                         Program Version 4.2.1 -  RELEASE  -
|  1> ! STEOM-DLPNO-CCSD RIJK def2-TZVP def2/JK def2-TZVP/C verytightSCF CPCM(Water)
|  2> %maxcore 1500
|  3> %pal
|  4> nprocs 8
|  5> end
|  6> %mdci
|  7> nroots 10
|  8> DoSOLV true
|  9> maxiter 100
| 10> end
| 11> * xyz 0 1
| 12> H  5.874000  10.883000  7.437000
| 13> C  5.410000  9.973000  7.152000
| 14> C  4.191000  10.008000  6.492000
| 15> H  3.500000  10.866000  6.565000
| 16> C  3.599000  8.823000  6.047000
| 17> H  2.631000  8.882000  5.640000
| 18> C  4.378000  7.624000  6.002000
| 19> O  4.040000  6.368000  5.527000
| 20> C  5.708000  7.609000  6.549000
| 21> C  6.183000  8.793000  7.092000
| 22> H  7.072000  8.781000  7.643000
| 23> O  6.470000  6.470000  6.470000
| 24> H  7.425000  6.654000  6.640000
| 25> C  2.745000  6.120000  4.903000
| 26> H  2.506000  6.745000  4.014000
| 27> H  1.878000  6.165000  5.591000
| 28> H  2.759000  5.049000  4.579000
| 29> **                         ****END OF INPUT****

CARTESIAN COORDINATES (ANGSTROEM)
---------------------------------
  H      5.874000   10.883000    7.437000
  C      5.410000    9.973000    7.152000
  C      4.191000   10.008000    6.492000
  H      3.500000   10.866000    6.565000
  C      3.599000    8.823000    6.047000
  H      2.631000    8.882000    5.640000
  C      4.378000    7.624000    6.002000
  O      4.040000    6.368000    5.527000
  C      5.708000    7.609000    6.549000
  C      6.183000    8.793000    7.092000
  H      7.072000    8.781000    7.643000
  O      6.470000    6.470000    6.470000
  H      7.425000    6.654000    6.640000
  C      2.745000    6.120000    4.903000
  H      2.506000    6.745000    4.014000
  H      1.878000    6.165000    5.591000
  H      2.759000    5.049000    4.579000

 Total Charge           Charge          ....    0
 Multiplicity           Mult            ....    1
 Number of Electrons    NEL             ....   66
 Basis Dimension        Dim             ....  327

ORBITAL ENERGIES
----------------

  NO   OCC          E(Eh)            E(eV)
   0   2.0000     -20.590402      -560.2933
   1   2.0000     -20.589667      -560.2733
   2   2.0000     -11.313200      -307.8478
   3   2.0000     -11.305129      -307.6282
   4   2.0000     -11.284832      -307.0759
   5   2.0000     -11.238908      -305.8262
   6   2.0000     -11.233790      -305.6870
   7   2.0000     -11.230957      -305.6099
   8   2.0000     -11.229717      -305.5761
   9   2.0000      -1.406705       -38.2784
  10   2.0000      -1.380649       -37.5694
  11   2.0000      -1.141204       -31.0537
  12   2.0000      -1.015328       -27.6285
  13   2.0000      -1.012234       -27.5443
  14   2.0000      -0.931036       -25.3348
  15   2.0000      -0.840970       -22.8840
  16   2.0000      -0.813817       -22.1451
  17   2.0000      -0.735040       -20.0014
  18   2.0000      -0.700578       -19.0637
  19   2.0000      -0.675247       -18.3744
  20   2.0000      -0.642085       -17.4720
  21   2.0000      -0.634702       -17.2711
  22   2.0000      -0.613659       -16.6985
  23   2.0000      -0.593593       -16.1525
  24   2.0000      -0.583393       -15.8749
  25   2.0000      -0.560576       -15.2540
  26   2.0000      -0.526997       -14.3403
  27   2.0000      -0.513693       -13.9783
  28   2.0000      -0.500069       -13.6076
  29   2.0000      -0.486994       -13.2518
  30   2.0000      -0.467079       -12.7099
  31   2.0000      -0.335937        -9.1413
  32   2.0000      -0.306343        -8.3360
  33   0.0000       0.119537         3.2528
  34   0.0000       0.130378         3.5478
  35   0.0000       0.152657         4.1540
  36   0.0000       0.160378         4.3641
  37   0.0000       0.173808         4.7296

E(0)                                       ...   -419.583622396
E(0)                                       ...   -419.583622396
E(CORR)(strong-pairs)                      ...     -1.595585233
E(CORR)(weak-pairs)                        ...     -0.006555570
E(CORR)(corrected)                         ...     -1.602140803
E(TOT)                                     ...   -421.185763198

MULLIKEN ATOMIC CHARGES
-----------------------
   0 H :    0.167465
   1 C :   -0.184347
   2 C :   -0.189406
   3 H :    0.167156
   4 C :   -0.246552
   5 H :    0.177659
   6 C :    0.191879
   7 O :   -0.290840
   8 C :    0.119582
   9 C :   -0.189359
  10 H :    0.166833
  11 O :   -0.482086
  12 H :    0.389497
  13 C :   -0.277861
  14 H :    0.157951
  15 H :    0.153715
  16 H :    0.168715
Sum of atomic charges:   -0.0000000

LOEWDIN ATOMIC CHARGES
----------------------
   0 H :    0.148251
   1 C :   -0.165719
   2 C :   -0.174805
   3 H :    0.159835
   4 C :   -0.143172
   5 H :    0.148947
   6 C :   -0.205880
   7 O :    0.178219
   8 C :   -0.250572
   9 C :   -0.143398
  10 H :    0.148230
  11 O :    0.033128
  12 H :    0.226157
  13 C :   -0.322676
  14 H :    0.118994
  15 H :    0.116711
  16 H :    0.127751

  Mayer bond orders larger than 0.100000
B(  0-H ,  1-C ) :   0.9318 B(  1-C ,  2-C ) :   1.3682 B(  1-C ,  9-C ) :   1.2539
B(  2-C ,  3-H ) :   0.9256 B(  2-C ,  4-C ) :   1.2844 B(  4-C ,  5-H ) :   0.9241
B(  4-C ,  6-C ) :   1.2986 B(  6-C ,  7-O ) :   1.0492 B(  6-C ,  8-C ) :   1.1976
B(  7-O , 13-C ) :   0.8412 B(  8-C ,  9-C ) :   1.3570 B(  8-C , 11-O ) :   1.0717
B(  9-C , 10-H ) :   0.9247 B( 11-O , 12-H ) :   0.7878 B( 13-C , 14-H ) :   0.9132
B( 13-C , 15-H ) :   0.9159 B( 13-C , 16-H ) :   0.9163

-----------------------------------------------------------------------------
         ABSORPTION SPECTRUM VIA TRANSITION ELECTRIC DIPOLE MOMENTS
-----------------------------------------------------------------------------
State   Energy  Wavelength   fosc         T2         TX        TY        TZ
        (cm-1)    (nm)                  (au**2)     (au)      (au)      (au)
-----------------------------------------------------------------------------
   1   36186.2    276.3   0.026575763   0.24178   0.02659   0.47708   0.11600
   2   46326.7    215.9   0.158205310   1.12426   0.79183   0.37518   0.59662
   3   53101.8    188.3   0.338138210   2.09633   0.20674   1.41864   0.18342
   4   54516.4    183.4   0.822955321   4.96964   0.53023   1.95015   0.21788
   5   54945.1    182.0   0.905642254   5.42630   1.91089   0.46331   0.92614
   6   59310.8    168.6   0.012741113   0.07072   0.23247   0.04909   0.10493
   7   59047.1    169.4   0.009363716   0.05221   0.04512   0.18570   0.12321
   8   63787.7    156.8   0.019095777   0.09855   0.12474   0.10448   0.26660
   9   65976.0    151.6   0.010209021   0.05094   0.14449   0.00883   0.16923
  10   66750.0    149.8   0.024265368   0.11968   0.13403   0.18660   0.25857

FINAL SINGLE POINT ENERGY      -421.020886675980

DIPOLE MOMENT
-------------
                                X             Y             Z
Electronic contribution:      3.90115      -0.45657       1.42421
Nuclear contribution   :     -4.02990       0.89512      -1.53241
                        -----------------------------------------
Total Dipole Moment    :     -0.12874       0.43855      -0.10820
                        -----------------------------------------
Magnitude (a.u.)       :      0.46969
Magnitude (Debye)      :      1.19386

Rotational constants in cm-1:     0.084511     0.049739     0.031540
Rotational constants in MHz :  2533.564751  1491.126812   945.534190

                             ****ORCA TERMINATED NORMALLY****
TOTAL RUN TIME: 0 days 0 hours 9 minutes 13 seconds 685 msec
