                         Program Version 4.2.1 -  RELEASE  -
|  1> ! STEOM-DLPNO-CCSD RIJK def2-TZVP def2/JK def2-TZVP/C verytightSCF CPCM(Water)
|  2> %maxcore 1500
|  3> %pal
|  4> nprocs 8
|  5> end
|  6> %mdci
|  7> nroots 10
|  8> DoSOLV true
|  9> maxiter 100
| 10> end
| 11> * xyz 0 1
| 12> H  7.610000  8.549000  6.561000
| 13> C  6.662000  8.314000  7.005000
| 14> C  6.434000  7.785000  8.245000
| 15> H  7.243000  7.476000  8.875000
| 16> C  5.088000  7.353000  8.644000
| 17> H  4.879000  6.817000  9.643000
| 18> C  3.990000  7.639000  7.837000
| 19> O  2.614000  7.417000  8.095000
| 20> C  4.272000  8.336000  6.625000
| 21> C  5.553000  8.644000  6.198000
| 22> H  5.754000  9.029000  5.203000
| 23> O  3.149000  8.680000  5.949000
| 24> C  2.246000  6.947000  9.376000
| 25> H  2.753000  7.584000  10.096000
| 26> H  1.137000  7.024000  9.547000
| 27> H  2.556000  5.854000  9.524000
| 28> C  3.281000  9.349000  4.714000
| 29> H  2.250000  9.760000  4.470000
| 30> H  3.956000  10.228000  4.696000
| 31> H  3.510000  8.621000  3.915000
| 32> **                         ****END OF INPUT****

CARTESIAN COORDINATES (ANGSTROEM)
---------------------------------
  H      7.610000    8.549000    6.561000
  C      6.662000    8.314000    7.005000
  C      6.434000    7.785000    8.245000
  H      7.243000    7.476000    8.875000
  C      5.088000    7.353000    8.644000
  H      4.879000    6.817000    9.643000
  C      3.990000    7.639000    7.837000
  O      2.614000    7.417000    8.095000
  C      4.272000    8.336000    6.625000
  C      5.553000    8.644000    6.198000
  H      5.754000    9.029000    5.203000
  O      3.149000    8.680000    5.949000
  C      2.246000    6.947000    9.376000
  H      2.753000    7.584000   10.096000
  H      1.137000    7.024000    9.547000
  H      2.556000    5.854000    9.524000
  C      3.281000    9.349000    4.714000
  H      2.250000    9.760000    4.470000
  H      3.956000   10.228000    4.696000
  H      3.510000    8.621000    3.915000

 Total Charge           Charge          ....    0
 Multiplicity           Mult            ....    1
 Number of Electrons    NEL             ....   74
 Basis Dimension        Dim             ....  370

ORBITAL ENERGIES
----------------

  NO   OCC          E(Eh)            E(eV)
   0   2.0000     -20.587366      -560.2107
   1   2.0000     -20.585584      -560.1622
   2   2.0000     -11.307367      -307.6891
   3   2.0000     -11.305114      -307.6278
   4   2.0000     -11.281796      -306.9933
   5   2.0000     -11.280237      -306.9509
   6   2.0000     -11.255454      -306.2765
   7   2.0000     -11.237760      -305.7950
   8   2.0000     -11.234840      -305.7155
   9   2.0000     -11.230981      -305.6105
  10   2.0000      -1.422489       -38.7079
  11   2.0000      -1.388122       -37.7727
  12   2.0000      -1.143669       -31.1208
  13   2.0000      -1.029517       -28.0146
  14   2.0000      -1.008553       -27.4441
  15   2.0000      -0.934655       -25.4333
  16   2.0000      -0.928461       -25.2647
  17   2.0000      -0.814501       -22.1637
  18   2.0000      -0.809926       -22.0392
  19   2.0000      -0.721825       -19.6418
  20   2.0000      -0.685403       -18.6508
  21   2.0000      -0.679937       -18.5020
  22   2.0000      -0.662263       -18.0211
  23   2.0000      -0.639480       -17.4011
  24   2.0000      -0.628480       -17.1018
  25   2.0000      -0.606940       -16.5157
  26   2.0000      -0.601341       -16.3633
  27   2.0000      -0.572609       -15.5815
  28   2.0000      -0.533425       -14.5152
  29   2.0000      -0.524282       -14.2664
  30   2.0000      -0.516519       -14.0552
  31   2.0000      -0.492679       -13.4065
  32   2.0000      -0.482371       -13.1260
  33   2.0000      -0.473660       -12.8889
  34   2.0000      -0.461758       -12.5651
  35   2.0000      -0.336522        -9.1572
  36   2.0000      -0.310447        -8.4477
  37   0.0000       0.121154         3.2968
  38   0.0000       0.131616         3.5815
  39   0.0000       0.153974         4.1899
  40   0.0000       0.159875         4.3504
  41   0.0000       0.171182         4.6581

E(0)                                       ...   -458.611161628
E(0)                                       ...   -458.611161628
E(CORR)(strong-pairs)                      ...     -1.773823734
E(CORR)(weak-pairs)                        ...     -0.008061301
E(CORR)(corrected)                         ...     -1.781885035
E(TOT)                                     ...   -460.393046663

MULLIKEN ATOMIC CHARGES
-----------------------
   0 H :    0.171446
   1 C :   -0.193739
   2 C :   -0.202146
   3 H :    0.166061
   4 C :   -0.222910
   5 H :    0.193278
   6 C :    0.123458
   7 O :   -0.297001
   8 C :    0.239995
   9 C :   -0.263205
  10 H :    0.181962
  11 O :   -0.283328
  12 C :   -0.269877
  13 H :    0.146749
  14 H :    0.173285
  15 H :    0.145994
  16 C :   -0.276975
  17 H :    0.160281
  18 H :    0.154373
  19 H :    0.152299
Sum of atomic charges:   -0.0000000

LOEWDIN ATOMIC CHARGES
----------------------
   0 H :    0.154591
   1 C :   -0.165784
   2 C :   -0.165350
   3 H :    0.148219
   4 C :   -0.141667
   5 H :    0.172482
   6 C :   -0.202922
   7 O :    0.172733
   8 C :   -0.236019
   9 C :   -0.151137
  10 H :    0.162031
  11 O :    0.223696
  12 C :   -0.350708
  13 H :    0.111606
  14 H :    0.128404
  15 H :    0.121580
  16 C :   -0.346904
  17 H :    0.129050
  18 H :    0.119347
  19 H :    0.116752

  Mayer bond orders larger than 0.100000
B(  0-H ,  1-C ) :   0.9252 B(  1-C ,  2-C ) :   1.4336 B(  1-C ,  9-C ) :   1.2220
B(  2-C ,  3-H ) :   0.9300 B(  2-C ,  4-C ) :   1.1710 B(  4-C ,  5-H ) :   0.8987
B(  4-C ,  6-C ) :   1.4014 B(  6-C ,  7-O ) :   1.0315 B(  6-C ,  8-C ) :   1.1606
B(  7-O , 12-C ) :   0.8493 B(  8-C ,  9-C ) :   1.3671 B(  8-C , 11-O ) :   1.0556
B(  9-C , 10-H ) :   0.9182 B( 11-O , 16-C ) :   0.8525 B( 12-C , 13-H ) :   0.9277
B( 12-C , 14-H ) :   0.9095 B( 12-C , 15-H ) :   0.9161 B( 16-C , 17-H ) :   0.9173
B( 16-C , 18-H ) :   0.9134 B( 16-C , 19-H ) :   0.9212

-----------------------------------------------------------------------------
         ABSORPTION SPECTRUM VIA TRANSITION ELECTRIC DIPOLE MOMENTS
-----------------------------------------------------------------------------
State   Energy  Wavelength   fosc         T2         TX        TY        TZ
        (cm-1)    (nm)                  (au**2)     (au)      (au)      (au)
-----------------------------------------------------------------------------
   1   36984.9    270.4   0.024800432   0.22075   0.46202   0.08356   0.01075
   2   46351.5    215.7   0.128971057   0.91602   0.28693   0.35016   0.84321
   3   53012.9    188.6   0.814268103   5.05664   2.14938   0.45112   0.32953
   4   54511.2    183.4   0.750423397   4.53207   0.21230   0.91111   1.84424
   5   55751.1    179.4   0.220365917   1.30127   1.11297   0.04660   0.23837
   6   59119.3    169.1   0.015809238   0.08804   0.08970   0.22187   0.16966
   7   61461.2    162.7   0.019372793   0.10377   0.07600   0.07364   0.29922
   8   61506.3    162.6   0.005216496   0.02792   0.14669   0.02558   0.06100
   9   61543.4    162.5   0.004459530   0.02386   0.13551   0.01257   0.06230
  10   66162.2    151.1   0.078091928   0.38857   0.44580   0.41192   0.12760

FINAL SINGLE POINT ENERGY      -460.224530850253

DIPOLE MOMENT
-------------
                                X             Y             Z
Electronic contribution:      1.02987      -0.31783       0.00252
Nuclear contribution   :     -0.68332       0.41455      -0.01060
                        -----------------------------------------
Total Dipole Moment    :      0.34655       0.09672      -0.00808
                        -----------------------------------------
Magnitude (a.u.)       :      0.35989
Magnitude (Debye)      :      0.91476

Rotational constants in cm-1:     0.053341     0.045036     0.024703
Rotational constants in MHz :  1599.111366  1350.138576   740.564905

                             ****ORCA TERMINATED NORMALLY****
TOTAL RUN TIME: 0 days 0 hours 11 minutes 44 seconds 933 msec
