                         Program Version 4.2.1 -  RELEASE  -
|  1> ! STEOM-DLPNO-CCSD RIJK def2-TZVP def2/JK def2-TZVP/C verytightSCF CPCM(Water)
|  2> %maxcore 1500
|  3> %pal
|  4> nprocs 8
|  5> end
|  6> %mdci
|  7> nroots 10
|  8> DoSOLV true
|  9> maxiter 100
| 10> end
| 11> * xyz 0 1
| 12> H  7.265000  5.258000  9.341000
| 13> C  7.035000  4.736000  8.415000
| 14> C  5.808000  4.785000  7.786000
| 15> H  4.887000  5.239000  8.214000
| 16> C  5.796000  4.355000  6.417000
| 17> O  4.562000  4.499000  5.796000
| 18> C  6.854000  3.742000  5.754000
| 19> H  6.935000  3.482000  4.658000
| 20> C  8.077000  3.727000  6.483000
| 21> C  8.191000  4.257000  7.838000
| 22> H  9.025000  4.446000  8.501000
| 23> O  9.262000  3.072000  5.975000
| 24> C  9.372000  3.038000  4.562000
| 25> H  9.073000  3.991000  4.076000
| 26> H  10.492000  2.852000  4.379000
| 27> H  8.866000  2.146000  4.096000
| 28> C  4.552000  4.276000  4.350000
| 29> H  4.901000  3.235000  4.207000
| 30> H  3.516000  4.337000  4.066000
| 31> H  5.239000  5.011000  3.934000
| 32> **                         ****END OF INPUT****

CARTESIAN COORDINATES (ANGSTROEM)
---------------------------------
  H      7.265000    5.258000    9.341000
  C      7.035000    4.736000    8.415000
  C      5.808000    4.785000    7.786000
  H      4.887000    5.239000    8.214000
  C      5.796000    4.355000    6.417000
  O      4.562000    4.499000    5.796000
  C      6.854000    3.742000    5.754000
  H      6.935000    3.482000    4.658000
  C      8.077000    3.727000    6.483000
  C      8.191000    4.257000    7.838000
  H      9.025000    4.446000    8.501000
  O      9.262000    3.072000    5.975000
  C      9.372000    3.038000    4.562000
  H      9.073000    3.991000    4.076000
  H     10.492000    2.852000    4.379000
  H      8.866000    2.146000    4.096000
  C      4.552000    4.276000    4.350000
  H      4.901000    3.235000    4.207000
  H      3.516000    4.337000    4.066000
  H      5.239000    5.011000    3.934000

 Total Charge           Charge          ....    0
 Multiplicity           Mult            ....    1
 Number of Electrons    NEL             ....   74
 Basis Dimension        Dim             ....  370

ORBITAL ENERGIES
----------------

  NO   OCC          E(Eh)            E(eV)
   0   2.0000     -20.589612      -560.2718
   1   2.0000     -20.581312      -560.0460
   2   2.0000     -11.329465      -308.2904
   3   2.0000     -11.317882      -307.9752
   4   2.0000     -11.283983      -307.0528
   5   2.0000     -11.276673      -306.8539
   6   2.0000     -11.245564      -306.0074
   7   2.0000     -11.239699      -305.8478
   8   2.0000     -11.233258      -305.6725
   9   2.0000     -11.230391      -305.5945
  10   2.0000      -1.392355       -37.8879
  11   2.0000      -1.386836       -37.7377
  12   2.0000      -1.143811       -31.1247
  13   2.0000      -1.027352       -27.9557
  14   2.0000      -1.010300       -27.4916
  15   2.0000      -0.943407       -25.6714
  16   2.0000      -0.913426       -24.8556
  17   2.0000      -0.820218       -22.3193
  18   2.0000      -0.802944       -21.8492
  19   2.0000      -0.716939       -19.5089
  20   2.0000      -0.680874       -18.5275
  21   2.0000      -0.655674       -17.8418
  22   2.0000      -0.651111       -17.7176
  23   2.0000      -0.642436       -17.4816
  24   2.0000      -0.633750       -17.2452
  25   2.0000      -0.614403       -16.7187
  26   2.0000      -0.596191       -16.2232
  27   2.0000      -0.563470       -15.3328
  28   2.0000      -0.537484       -14.6257
  29   2.0000      -0.533234       -14.5100
  30   2.0000      -0.516018       -14.0416
  31   2.0000      -0.499161       -13.5829
  32   2.0000      -0.487086       -13.2543
  33   2.0000      -0.477583       -12.9957
  34   2.0000      -0.449283       -12.2256
  35   2.0000      -0.349356        -9.5065
  36   2.0000      -0.307777        -8.3750
  37   0.0000       0.114494         3.1155
  38   0.0000       0.128772         3.5041
  39   0.0000       0.146820         3.9952
  40   0.0000       0.170909         4.6507
  41   0.0000       0.180267         4.9053

E(0)                                       ...   -458.596177831
E(0)                                       ...   -458.596177831
E(CORR)(strong-pairs)                      ...     -1.778304352
E(CORR)(weak-pairs)                        ...     -0.007814505
E(CORR)(corrected)                         ...     -1.786118857
E(TOT)                                     ...   -460.382296689

MULLIKEN ATOMIC CHARGES
-----------------------
   0 H :    0.171277
   1 C :   -0.056372
   2 C :   -0.348098
   3 H :    0.173783
   4 C :    0.312076
   5 O :   -0.318916
   6 C :   -0.360167
   7 H :    0.208498
   8 C :    0.283551
   9 C :   -0.368368
  10 H :    0.177848
  11 O :   -0.315481
  12 C :   -0.270758
  13 H :    0.160863
  14 H :    0.161904
  15 H :    0.149866
  16 C :   -0.245111
  17 H :    0.147490
  18 H :    0.174458
  19 H :    0.161659
Sum of atomic charges:   -0.0000000

LOEWDIN ATOMIC CHARGES
----------------------
   0 H :    0.161893
   1 C :   -0.172178
   2 C :   -0.148080
   3 H :    0.162952
   4 C :   -0.232930
   5 O :    0.160101
   6 C :   -0.150730
   7 H :    0.182996
   8 C :   -0.172226
   9 C :   -0.158201
  10 H :    0.160581
  11 O :    0.142052
  12 C :   -0.367072
  13 H :    0.119486
  14 H :    0.130200
  15 H :    0.117218
  16 C :   -0.292779
  17 H :    0.120389
  18 H :    0.117854
  19 H :    0.118475

  Mayer bond orders larger than 0.100000
B(  0-H ,  1-C ) :   0.9066 B(  1-C ,  2-C ) :   1.3304 B(  1-C ,  9-C ) :   1.3333
B(  2-C ,  3-H ) :   0.9190 B(  2-C ,  4-C ) :   1.2403 B(  4-C ,  5-O ) :   1.0367
B(  4-C ,  6-C ) :   1.2466 B(  5-O , 16-C ) :   0.8202 B(  6-C ,  7-H ) :   0.8995
B(  6-C ,  8-C ) :   1.2554 B(  8-C ,  9-C ) :   1.2690 B(  8-C , 11-O ) :   0.9721
B(  9-C , 10-H ) :   0.9193 B( 11-O , 12-C ) :   0.8515 B( 12-C , 13-H ) :   0.9145
B( 12-C , 14-H ) :   0.9122 B( 12-C , 15-H ) :   0.9128 B( 16-C , 17-H ) :   0.9208
B( 16-C , 18-H ) :   0.9183 B( 16-C , 19-H ) :   0.9221

-----------------------------------------------------------------------------
         ABSORPTION SPECTRUM VIA TRANSITION ELECTRIC DIPOLE MOMENTS
-----------------------------------------------------------------------------
State   Energy  Wavelength   fosc         T2         TX        TY        TZ
        (cm-1)    (nm)                  (au**2)     (au)      (au)      (au)
-----------------------------------------------------------------------------
   1   35212.3    284.0   0.029085774   0.27193   0.42654   0.19182   0.23059
   2   44772.5    223.4   0.245473225   1.80496   0.07229   0.36834   1.28987
   3   51815.7    193.0   0.809792646   5.14503   2.14444   0.32875   0.66194
   4   54614.7    183.1   0.421185263   2.53886   0.59622   0.74909   1.27248
   5   57644.8    173.5   0.142543842   0.81407   0.70535   0.31767   0.46322
   6   58670.8    170.4   0.003593026   0.02016   0.03347   0.06693   0.03666
   7   61562.5    162.4   0.008063587   0.04312   0.02571   0.15678   0.12770
   8   62234.4    160.7   0.010161681   0.05375   0.18970   0.07951   0.07525
   9   62234.8    160.7   0.008218567   0.04347   0.17442   0.10948   0.02673
  10   65268.5    153.2   0.017206999   0.08679   0.02968   0.12032   0.26697

FINAL SINGLE POINT ENERGY      -460.221857854501

DIPOLE MOMENT
-------------
                                X             Y             Z
Electronic contribution:     -0.66872       0.51225       5.24814
Nuclear contribution   :      0.61995      -0.29085      -6.64040
                        -----------------------------------------
Total Dipole Moment    :     -0.04877       0.22140      -1.39226
                        -----------------------------------------
Magnitude (a.u.)       :      1.41060
Magnitude (Debye)      :      3.58546

Rotational constants in cm-1:     0.061284     0.035991     0.023023
Rotational constants in MHz :  1837.237730  1078.993516   690.223506

                             ****ORCA TERMINATED NORMALLY****
TOTAL RUN TIME: 0 days 0 hours 11 minutes 59 seconds 92 msec
