                         Program Version 4.2.1 -  RELEASE  -
|  1> ! STEOM-DLPNO-CCSD RIJK def2-TZVP def2/JK def2-TZVP/C verytightSCF CPCM(Water)
|  2> %maxcore 1500
|  3> %pal
|  4> nprocs 8
|  5> end
|  6> %mdci
|  7> nroots 10
|  8> DoSOLV true
|  9> maxiter 100
| 10> end
| 11> * xyz 0 1
| 12> O  4.645000  4.122000  10.422000
| 13> C  5.478000  5.115000  9.833000
| 14> C  5.518000  6.419000  10.374000
| 15> H  4.992000  6.679000  11.254000
| 16> C  6.385000  7.361000  9.726000
| 17> H  6.420000  8.449000  9.948000
| 18> C  7.033000  7.058000  8.553000
| 19> N  7.967000  7.967000  7.967000
| 20> H  7.682000  8.957000  8.253000
| 21> H  7.988000  7.864000  6.933000
| 22> C  6.806000  5.816000  7.884000
| 23> H  7.248000  5.578000  6.974000
| 24> C  6.008000  4.866000  8.544000
| 25> H  5.896000  3.839000  8.158000
| 26> H  3.607000  4.344000  10.187000
| 27> **                         ****END OF INPUT****

CARTESIAN COORDINATES (ANGSTROEM)
---------------------------------
  O      4.645000    4.122000   10.422000
  C      5.478000    5.115000    9.833000
  C      5.518000    6.419000   10.374000
  H      4.992000    6.679000   11.254000
  C      6.385000    7.361000    9.726000
  H      6.420000    8.449000    9.948000
  C      7.033000    7.058000    8.553000
  N      7.967000    7.967000    7.967000
  H      7.682000    8.957000    8.253000
  H      7.988000    7.864000    6.933000
  C      6.806000    5.816000    7.884000
  H      7.248000    5.578000    6.974000
  C      6.008000    4.866000    8.544000
  H      5.896000    3.839000    8.158000
  H      3.607000    4.344000   10.187000

 Total Charge           Charge          ....    0
 Multiplicity           Mult            ....    1
 Number of Electrons    NEL             ....   58
 Basis Dimension        Dim             ....  290

ORBITAL ENERGIES
----------------

  NO   OCC          E(Eh)            E(eV)
   0   2.0000     -20.580459      -560.0228
   1   2.0000     -15.566257      -423.5794
   2   2.0000     -11.291742      -307.2639
   3   2.0000     -11.276479      -306.8486
   4   2.0000     -11.246424      -306.0308
   5   2.0000     -11.243720      -305.9572
   6   2.0000     -11.233852      -305.6887
   7   2.0000     -11.232767      -305.6591
   8   2.0000      -1.347616       -36.6705
   9   2.0000      -1.207592       -32.8602
  10   2.0000      -1.112020       -30.2596
  11   2.0000      -1.014793       -27.6139
  12   2.0000      -0.970095       -26.3976
  13   2.0000      -0.848630       -23.0924
  14   2.0000      -0.795185       -21.6381
  15   2.0000      -0.702846       -19.1254
  16   2.0000      -0.676599       -18.4112
  17   2.0000      -0.670281       -18.2393
  18   2.0000      -0.627392       -17.0722
  19   2.0000      -0.600673       -16.3452
  20   2.0000      -0.597399       -16.2561
  21   2.0000      -0.577280       -15.7086
  22   2.0000      -0.540850       -14.7173
  23   2.0000      -0.522430       -14.2160
  24   2.0000      -0.511535       -13.9196
  25   2.0000      -0.471269       -12.8239
  26   2.0000      -0.443202       -12.0601
  27   2.0000      -0.341577        -9.2948
  28   2.0000      -0.299629        -8.1533
  29   0.0000       0.104642         2.8475
  30   0.0000       0.123832         3.3696
  31   0.0000       0.149487         4.0678
  32   0.0000       0.166674         4.5354
  33   0.0000       0.185798         5.0558

E(0)                                       ...   -360.699102563
E(0)                                       ...   -360.699102563
E(CORR)(strong-pairs)                      ...     -1.403912205
E(CORR)(weak-pairs)                        ...     -0.004842906
E(CORR)(corrected)                         ...     -1.408755111
E(TOT)                                     ...   -362.107857674

MULLIKEN ATOMIC CHARGES
-----------------------
   0 O :   -0.554306
   1 C :    0.191202
   2 C :   -0.218714
   3 H :    0.171380
   4 C :   -0.217926
   5 H :    0.163079
   6 C :    0.173587
   7 N :   -0.557310
   8 H :    0.281625
   9 H :    0.286629
  10 C :   -0.272874
  11 H :    0.173527
  12 C :   -0.177534
  13 H :    0.166314
  14 H :    0.391322
Sum of atomic charges:    0.0000000

LOEWDIN ATOMIC CHARGES
----------------------
   0 O :   -0.088758
   1 C :   -0.269669
   2 C :   -0.119689
   3 H :    0.147332
   4 C :   -0.149591
   5 H :    0.162718
   6 C :   -0.251819
   7 N :   -0.133422
   8 H :    0.198847
   9 H :    0.187307
  10 C :   -0.123734
  11 H :    0.142156
  12 C :   -0.134856
  13 H :    0.159681
  14 H :    0.273497

  Mayer bond orders larger than 0.100000
B(  0-O ,  1-C ) :   0.8760 B(  0-O , 14-H ) :   0.7722 B(  1-C ,  2-C ) :   1.3271
B(  1-C , 12-C ) :   1.2694 B(  2-C ,  3-H ) :   0.9318 B(  2-C ,  4-C ) :   1.2658
B(  4-C ,  5-H ) :   0.9037 B(  4-C ,  6-C ) :   1.3412 B(  6-C ,  7-N ) :   1.0097
B(  6-C , 10-C ) :   1.2075 B(  7-N ,  8-H ) :   0.8454 B(  7-N ,  9-H ) :   0.8515
B( 10-C , 11-H ) :   0.9219 B( 10-C , 12-C ) :   1.3523 B( 12-C , 13-H ) :   0.9202

-----------------------------------------------------------------------------
         ABSORPTION SPECTRUM VIA TRANSITION ELECTRIC DIPOLE MOMENTS
-----------------------------------------------------------------------------
State   Energy  Wavelength   fosc         T2         TX        TY        TZ
        (cm-1)    (nm)                  (au**2)     (au)      (au)      (au)
-----------------------------------------------------------------------------
   1   33727.5    296.5   0.038502077   0.37582   0.00546   0.46852   0.39474
   2   44595.0    224.2   0.238804215   1.76292   0.72751   0.97317   0.53522
   3   51313.6    194.9   0.027090087   0.17380   0.16931   0.07709   0.37166
   4   52475.3    190.6   0.423067223   2.65418   0.59857   0.53628   1.40114
   5   54015.1    185.1   0.571615061   3.48389   1.05653   1.42627   0.52831
   6   55272.1    180.9   0.189891741   1.13103   0.72428   0.45009   0.62882
   7   57552.0    173.8   0.099676510   0.57018   0.27620   0.69860   0.07601
   8   61470.3    162.7   0.011127010   0.05959   0.04154   0.23619   0.04459
   9   61355.0    163.0   0.010017255   0.05375   0.06107   0.14609   0.16672
  10   68530.2    145.9   0.014682150   0.07053   0.03288   0.12521   0.22801

FINAL SINGLE POINT ENERGY      -361.954183861495

DIPOLE MOMENT
-------------
                                X             Y             Z
Electronic contribution:     -1.17444      -1.82246       1.25158
Nuclear contribution   :      0.35405       2.92811      -2.28164
                        -----------------------------------------
Total Dipole Moment    :     -0.82039       1.10566      -1.03006
                        -----------------------------------------
Magnitude (a.u.)       :      1.71946
Magnitude (Debye)      :      4.37052

Rotational constants in cm-1:     0.180527     0.048255     0.038386
Rotational constants in MHz :  5412.053188  1446.662031  1150.771879

                             ****ORCA TERMINATED NORMALLY****
TOTAL RUN TIME: 0 days 0 hours 8 minutes 40 seconds 59 msec
