                         Program Version 4.2.1 -  RELEASE  -
|  1> ! STEOM-DLPNO-CCSD RIJK def2-TZVP def2/JK def2-TZVP/C verytightSCF CPCM(Water)
|  2> %maxcore 1500
|  3> %pal
|  4> nprocs 8
|  5> end
|  6> %mdci
|  7> nroots 10
|  8> DoSOLV true
|  9> maxiter 100
| 10> end
| 11> * xyz 0 1
| 12> H  13.704000  4.239000  6.885000
| 13> C  13.321000  4.960000  7.631000
| 14> C  13.505000  6.357000  7.522000
| 15> O  14.264000  6.934000  6.453000
| 16> C  13.038000  7.174000  8.570000
| 17> H  13.207000  8.220000  8.457000
| 18> C  12.329000  6.686000  9.729000
| 19> H  11.967000  7.366000  10.488000
| 20> C  12.094000  5.265000  9.759000
| 21> C  12.602000  4.440000  8.677000
| 22> H  12.532000  3.378000  8.963000
| 23> O  11.281000  4.661000  10.686000
| 24> C  10.240000  5.504000  11.349000
| 25> H  10.654000  6.349000  11.945000
| 26> H  9.529000  5.801000  10.525000
| 27> H  9.758000  4.773000  12.032000
| 28> C  13.422000  7.407000  5.355000
| 29> H  12.940000  6.636000  4.760000
| 30> H  12.762000  8.180000  5.732000
| 31> H  14.138000  7.889000  4.655000
| 32> **                         ****END OF INPUT****

CARTESIAN COORDINATES (ANGSTROEM)
---------------------------------
  H     13.704000    4.239000    6.885000
  C     13.321000    4.960000    7.631000
  C     13.505000    6.357000    7.522000
  O     14.264000    6.934000    6.453000
  C     13.038000    7.174000    8.570000
  H     13.207000    8.220000    8.457000
  C     12.329000    6.686000    9.729000
  H     11.967000    7.366000   10.488000
  C     12.094000    5.265000    9.759000
  C     12.602000    4.440000    8.677000
  H     12.532000    3.378000    8.963000
  O     11.281000    4.661000   10.686000
  C     10.240000    5.504000   11.349000
  H     10.654000    6.349000   11.945000
  H      9.529000    5.801000   10.525000
  H      9.758000    4.773000   12.032000
  C     13.422000    7.407000    5.355000
  H     12.940000    6.636000    4.760000
  H     12.762000    8.180000    5.732000
  H     14.138000    7.889000    4.655000

 Total Charge           Charge          ....    0
 Multiplicity           Mult            ....    1
 Number of Electrons    NEL             ....   74
 Basis Dimension        Dim             ....  370

ORBITAL ENERGIES
----------------

  NO   OCC          E(Eh)            E(eV)
   0   2.0000     -20.584711      -560.1385
   1   2.0000     -20.578256      -559.9628
   2   2.0000     -11.313177      -307.8472
   3   2.0000     -11.295092      -307.3551
   4   2.0000     -11.291839      -307.2666
   5   2.0000     -11.273514      -306.7679
   6   2.0000     -11.247991      -306.0734
   7   2.0000     -11.247402      -306.0574
   8   2.0000     -11.246190      -306.0244
   9   2.0000     -11.240090      -305.8584
  10   2.0000      -1.387782       -37.7635
  11   2.0000      -1.369539       -37.2671
  12   2.0000      -1.133669       -30.8487
  13   2.0000      -1.017861       -27.6974
  14   2.0000      -1.003859       -27.3164
  15   2.0000      -0.940124       -25.5821
  16   2.0000      -0.909580       -24.7509
  17   2.0000      -0.837182       -22.7809
  18   2.0000      -0.794149       -21.6099
  19   2.0000      -0.705786       -19.2054
  20   2.0000      -0.680994       -18.5308
  21   2.0000      -0.669487       -18.2177
  22   2.0000      -0.641529       -17.4569
  23   2.0000      -0.622724       -16.9452
  24   2.0000      -0.617988       -16.8163
  25   2.0000      -0.611427       -16.6378
  26   2.0000      -0.586409       -15.9570
  27   2.0000      -0.570274       -15.5180
  28   2.0000      -0.566612       -15.4183
  29   2.0000      -0.527193       -14.3456
  30   2.0000      -0.518200       -14.1009
  31   2.0000      -0.499578       -13.5942
  32   2.0000      -0.479725       -13.0540
  33   2.0000      -0.461547       -12.5593
  34   2.0000      -0.451559       -12.2875
  35   2.0000      -0.347269        -9.4497
  36   2.0000      -0.307035        -8.3548
  37   0.0000       0.108330         2.9478
  38   0.0000       0.127944         3.4815
  39   0.0000       0.156874         4.2688
  40   0.0000       0.160424         4.3654
  41   0.0000       0.183247         4.9864

E(0)                                       ...   -458.605233450
E(0)                                       ...   -458.605233450
E(CORR)(strong-pairs)                      ...     -1.775766370
E(CORR)(weak-pairs)                        ...     -0.008027643
E(CORR)(corrected)                         ...     -1.783794013
E(TOT)                                     ...   -460.389027463

MULLIKEN ATOMIC CHARGES
-----------------------
   0 H :    0.171869
   1 C :   -0.220107
   2 C :    0.201219
   3 O :   -0.368667
   4 C :   -0.175102
   5 H :    0.167246
   6 C :   -0.300116
   7 H :    0.181624
   8 C :    0.257537
   9 C :   -0.228121
  10 H :    0.168104
  11 O :   -0.328586
  12 C :   -0.246129
  13 H :    0.166719
  14 H :    0.160283
  15 H :    0.169103
  16 C :   -0.219360
  17 H :    0.149273
  18 H :    0.145735
  19 H :    0.147476
Sum of atomic charges:   -0.0000000

LOEWDIN ATOMIC CHARGES
----------------------
   0 H :    0.166831
   1 C :   -0.137720
   2 C :   -0.235535
   3 O :    0.113423
   4 C :   -0.121010
   5 H :    0.151579
   6 C :   -0.134730
   7 H :    0.153429
   8 C :   -0.245128
   9 C :   -0.141184
  10 H :    0.162309
  11 O :    0.150619
  12 C :   -0.285668
  13 H :    0.121874
  14 H :    0.127194
  15 H :    0.125820
  16 C :   -0.314064
  17 H :    0.110565
  18 H :    0.110117
  19 H :    0.121281

  Mayer bond orders larger than 0.100000
B(  0-H ,  1-C ) :   0.9203 B(  1-C ,  2-C ) :   1.2564 B(  1-C ,  9-C ) :   1.3666
B(  2-C ,  3-O ) :   0.8532 B(  2-C ,  4-C ) :   1.3924 B(  3-O , 16-C ) :   0.8342
B(  4-C ,  5-H ) :   0.9186 B(  4-C ,  6-C ) :   1.2184 B(  6-C ,  7-H ) :   0.9140
B(  6-C ,  8-C ) :   1.3027 B(  8-C ,  9-C ) :   1.2286 B(  8-C , 11-O ) :   1.0285
B(  9-C , 10-H ) :   0.9127 B( 11-O , 12-C ) :   0.8089 B( 12-C , 13-H ) :   0.9090
B( 12-C , 14-H ) :   0.9125 B( 12-C , 15-H ) :   0.9163 B( 16-C , 17-H ) :   0.9140
B( 16-C , 18-H ) :   0.9220 B( 16-C , 19-H ) :   0.9225

-----------------------------------------------------------------------------
         ABSORPTION SPECTRUM VIA TRANSITION ELECTRIC DIPOLE MOMENTS
-----------------------------------------------------------------------------
State   Energy  Wavelength   fosc         T2         TX        TY        TZ
        (cm-1)    (nm)                  (au**2)     (au)      (au)      (au)
-----------------------------------------------------------------------------
   1   34754.8    287.7   0.031058373   0.29420   0.00798   0.50809   0.18907
   2   45823.4    218.2   0.275946896   1.98250   0.67487   0.36160   1.18160
   3   54903.2    182.1   0.602977997   3.61559   0.04504   1.81613   0.55393
   4   55470.2    180.3   0.872384222   5.17754   1.17223   0.78059   1.78521
   5   57901.5    172.7   0.098072384   0.55761   0.01004   0.64134   0.37928
   6   58568.3    170.7   0.063735199   0.35826   0.45019   0.22828   0.30625
   7   59786.5    167.3   0.045497600   0.25053   0.16219   0.08855   0.46447
   8   62485.9    160.0   0.005029980   0.02650   0.08850   0.07305   0.05270
   9   64110.5    156.0   0.052709269   0.27067   0.19005   0.28013   0.39271
  10   68477.5    146.0   0.014863663   0.07146   0.05417   0.23571   0.11256

FINAL SINGLE POINT ENERGY      -460.230672918797

DIPOLE MOMENT
-------------
                                X             Y             Z
Electronic contribution:      3.10149      -2.43509       1.26226
Nuclear contribution   :     -4.34866       3.06633      -1.11896
                        -----------------------------------------
Total Dipole Moment    :     -1.24717       0.63124       0.14330
                        -----------------------------------------
Magnitude (a.u.)       :      1.40515
Magnitude (Debye)      :      3.57160

Rotational constants in cm-1:     0.122056     0.022606     0.020453
Rotational constants in MHz :  3659.158874   677.714356   613.179633

                             ****ORCA TERMINATED NORMALLY****
TOTAL RUN TIME: 0 days 0 hours 12 minutes 57 seconds 175 msec
