                         Program Version 4.2.1 -  RELEASE  -
|  1> ! STEOM-DLPNO-CCSD RIJK def2-TZVP def2/JK def2-TZVP/C verytightSCF CPCM(Water)
|  2> %maxcore 1500
|  3> %pal
|  4> nprocs 8
|  5> end
|  6> %mdci
|  7> nroots 10
|  8> DoSOLV true
|  9> maxiter 100
| 10> end
| 11> * xyz 0 1
| 12> H  13.757000  0.173000  13.148000
| 13> C  12.680000  0.436000  13.391000
| 14> C  11.715000 -0.440000  13.849000
| 15> O  12.001000 -1.804000  14.120000
| 16> C  10.493000  0.189000  14.157000
| 17> H  9.747000 -0.437000  14.620000
| 18> C  10.285000  1.539000  14.103000
| 19> H  9.370000  2.033000  14.369000
| 20> C  11.329000  2.397000  13.705000
| 21> C  12.537000  1.795000  13.281000
| 22> H  13.324000  2.336000  12.817000
| 23> O  11.066000  3.761000  13.665000
| 24> H  11.895000  4.249000  13.270000
| 25> H  11.056000 -2.315000  14.113000
| 26> **                         ****END OF INPUT****

CARTESIAN COORDINATES (ANGSTROEM)
---------------------------------
  H     13.757000    0.173000   13.148000
  C     12.680000    0.436000   13.391000
  C     11.715000   -0.440000   13.849000
  O     12.001000   -1.804000   14.120000
  C     10.493000    0.189000   14.157000
  H      9.747000   -0.437000   14.620000
  C     10.285000    1.539000   14.103000
  H      9.370000    2.033000   14.369000
  C     11.329000    2.397000   13.705000
  C     12.537000    1.795000   13.281000
  H     13.324000    2.336000   12.817000
  O     11.066000    3.761000   13.665000
  H     11.895000    4.249000   13.270000
  H     11.056000   -2.315000   14.113000

 Total Charge           Charge          ....    0
 Multiplicity           Mult            ....    1
 Number of Electrons    NEL             ....   58
 Basis Dimension        Dim             ....  284

ORBITAL ENERGIES
----------------

  NO   OCC          E(Eh)            E(eV)
   0   2.0000     -20.597495      -560.4863
   1   2.0000     -20.594511      -560.4051
   2   2.0000     -11.304365      -307.6074
   3   2.0000     -11.300289      -307.4965
   4   2.0000     -11.239536      -305.8433
   5   2.0000     -11.238468      -305.8143
   6   2.0000     -11.233814      -305.6876
   7   2.0000     -11.232784      -305.6596
   8   2.0000      -1.380703       -37.5708
   9   2.0000      -1.363484       -37.1023
  10   2.0000      -1.150029       -31.2939
  11   2.0000      -1.028521       -27.9875
  12   2.0000      -0.994919       -27.0731
  13   2.0000      -0.848545       -23.0901
  14   2.0000      -0.818505       -22.2726
  15   2.0000      -0.725692       -19.7471
  16   2.0000      -0.710887       -19.3442
  17   2.0000      -0.660064       -17.9613
  18   2.0000      -0.624201       -16.9854
  19   2.0000      -0.610491       -16.6123
  20   2.0000      -0.590509       -16.0686
  21   2.0000      -0.584438       -15.9034
  22   2.0000      -0.576079       -15.6759
  23   2.0000      -0.550402       -14.9772
  24   2.0000      -0.541653       -14.7391
  25   2.0000      -0.479211       -13.0400
  26   2.0000      -0.472878       -12.8677
  27   2.0000      -0.352715        -9.5979
  28   2.0000      -0.306059        -8.3283
  29   0.0000       0.116362         3.1664
  30   0.0000       0.140991         3.8366
  31   0.0000       0.149290         4.0624
  32   0.0000       0.158190         4.3046
  33   0.0000       0.177692         4.8353

E(0)                                       ...   -380.540683379
E(0)                                       ...   -380.540683379
E(CORR)(strong-pairs)                      ...     -1.424061544
E(CORR)(weak-pairs)                        ...     -0.004971574
E(CORR)(corrected)                         ...     -1.429033118
E(TOT)                                     ...   -381.969716498

MULLIKEN ATOMIC CHARGES
-----------------------
   0 H :    0.161519
   1 C :   -0.207299
   2 C :    0.179926
   3 O :   -0.497431
   4 C :   -0.161109
   5 H :    0.166082
   6 C :   -0.267572
   7 H :    0.166391
   8 C :    0.237734
   9 C :   -0.245570
  10 H :    0.174899
  11 O :   -0.486828
  12 H :    0.388832
  13 H :    0.390427
Sum of atomic charges:    0.0000000

LOEWDIN ATOMIC CHARGES
----------------------
   0 H :    0.173572
   1 C :   -0.152321
   2 C :   -0.261621
   3 O :   -0.051641
   4 C :   -0.143277
   5 H :    0.158238
   6 C :   -0.138759
   7 H :    0.157537
   8 C :   -0.259261
   9 C :   -0.150826
  10 H :    0.153980
  11 O :   -0.010428
  12 H :    0.254139
  13 H :    0.270670

  Mayer bond orders larger than 0.100000
B(  0-H ,  1-C ) :   0.9075 B(  1-C ,  2-C ) :   1.3214 B(  1-C ,  9-C ) :   1.3177
B(  2-C ,  3-O ) :   0.9991 B(  2-C ,  4-C ) :   1.2644 B(  3-O , 13-H ) :   0.7743
B(  4-C ,  5-H ) :   0.9145 B(  4-C ,  6-C ) :   1.3410 B(  6-C ,  7-H ) :   0.9209
B(  6-C ,  8-C ) :   1.2843 B(  8-C ,  9-C ) :   1.2796 B(  8-C , 11-O ) :   1.0501
B(  9-C , 10-H ) :   0.9168 B( 11-O , 12-H ) :   0.7821

-----------------------------------------------------------------------------
         ABSORPTION SPECTRUM VIA TRANSITION ELECTRIC DIPOLE MOMENTS
-----------------------------------------------------------------------------
State   Energy  Wavelength   fosc         T2         TX        TY        TZ
        (cm-1)    (nm)                  (au**2)     (au)      (au)      (au)
-----------------------------------------------------------------------------
   1   36383.1    274.9   0.050725182   0.45899   0.64397   0.00791   0.21012
   2   48847.1    204.7   0.203314630   1.37027   0.24710   1.14365   0.03388
   3   51245.7    195.1   0.004896531   0.03146   0.16124   0.03853   0.05864
   4   53770.3    186.0   0.012501335   0.07654   0.06690   0.26176   0.05799
   5   58209.9    171.8   1.001310332   5.66302   0.10434   2.37453   0.11701
   6   58807.7    170.0   0.009274993   0.05192   0.10872   0.19892   0.02115
   7   58754.1    170.2   0.004692308   0.02629   0.09997   0.12553   0.02105
   8   65524.8    152.6   0.002334207   0.01173   0.05940   0.05376   0.06270
   9   67641.9    147.8   0.009244807   0.04499   0.15501   0.14057   0.03282
  10   68129.4    146.8   0.007540776   0.03644   0.16696   0.06671   0.05824

FINAL SINGLE POINT ENERGY      -381.803943092348

DIPOLE MOMENT
-------------
                                X             Y             Z
Electronic contribution:     -0.11368       0.03452       0.04910
Nuclear contribution   :      0.05390       0.12114      -0.36595
                        -----------------------------------------
Total Dipole Moment    :     -0.05977       0.15566      -0.31685
                        -----------------------------------------
Magnitude (a.u.)       :      0.35804
Magnitude (Debye)      :      0.91007

Rotational constants in cm-1:     0.190667     0.047461     0.038116
Rotational constants in MHz :  5716.060008  1422.858999  1142.697947

                             ****ORCA TERMINATED NORMALLY****
TOTAL RUN TIME: 0 days 0 hours 7 minutes 22 seconds 457 msec
