                         Program Version 4.2.1 -  RELEASE  -
|  1> ! STEOM-DLPNO-CCSD RIJK def2-TZVP def2/JK def2-TZVP/C verytightSCF CPCM(Water)
|  2> %maxcore 1500
|  3> %pal
|  4> nprocs 8
|  5> end
|  6> %mdci
|  7> nroots 10
|  8> DoSOLV true
|  9> maxiter 100
| 10> end
| 11> * xyz 0 1
| 12> O  14.283000  10.448000  10.937000
| 13> C  12.982000  10.933000  10.980000
| 14> C  12.591000  12.176000  11.503000
| 15> H  13.225000  12.814000  12.103000
| 16> C  11.288000  12.655000  11.250000
| 17> H  10.948000  13.562000  11.710000
| 18> C  10.314000  11.883000  10.545000
| 19> N  9.027000  12.355000  10.203000
| 20> H  8.425000  11.584000  9.931000
| 21> H  8.623000  13.193000  10.628000
| 22> C  10.662000  10.567000  10.117000
| 23> H  9.814000  9.981000  9.729000
| 24> C  11.986000  10.081000  10.317000
| 25> H  12.209000  9.042000  10.113000
| 26> C  14.858000  10.718000  9.644000
| 27> H  15.871000  10.319000  9.717000
| 28> H  14.252000  10.285000  8.838000
| 29> H  14.924000  11.854000  9.540000
| 30> **                         ****END OF INPUT****

CARTESIAN COORDINATES (ANGSTROEM)
---------------------------------
  O     14.283000   10.448000   10.937000
  C     12.982000   10.933000   10.980000
  C     12.591000   12.176000   11.503000
  H     13.225000   12.814000   12.103000
  C     11.288000   12.655000   11.250000
  H     10.948000   13.562000   11.710000
  C     10.314000   11.883000   10.545000
  N      9.027000   12.355000   10.203000
  H      8.425000   11.584000    9.931000
  H      8.623000   13.193000   10.628000
  C     10.662000   10.567000   10.117000
  H      9.814000    9.981000    9.729000
  C     11.986000   10.081000   10.317000
  H     12.209000    9.042000   10.113000
  C     14.858000   10.718000    9.644000
  H     15.871000   10.319000    9.717000
  H     14.252000   10.285000    8.838000
  H     14.924000   11.854000    9.540000

 Total Charge           Charge          ....    0
 Multiplicity           Mult            ....    1
 Number of Electrons    NEL             ....   66
 Basis Dimension        Dim             ....  333

ORBITAL ENERGIES
----------------

  NO   OCC          E(Eh)            E(eV)
   0   2.0000     -20.573142      -559.8237
   1   2.0000     -15.559515      -423.3959
   2   2.0000     -11.292739      -307.2911
   3   2.0000     -11.286365      -307.1176
   4   2.0000     -11.277238      -306.8692
   5   2.0000     -11.249923      -306.1260
   6   2.0000     -11.243472      -305.9504
   7   2.0000     -11.238544      -305.8163
   8   2.0000     -11.230058      -305.5854
   9   2.0000      -1.389002       -37.7967
  10   2.0000      -1.208059       -32.8729
  11   2.0000      -1.108585       -30.1661
  12   2.0000      -1.010114       -27.4866
  13   2.0000      -0.978523       -26.6270
  14   2.0000      -0.914140       -24.8750
  15   2.0000      -0.838903       -22.8277
  16   2.0000      -0.796654       -21.6781
  17   2.0000      -0.704611       -19.1734
  18   2.0000      -0.686956       -18.6930
  19   2.0000      -0.678060       -18.4510
  20   2.0000      -0.637930       -17.3590
  21   2.0000      -0.623463       -16.9653
  22   2.0000      -0.606444       -16.5022
  23   2.0000      -0.585859       -15.9420
  24   2.0000      -0.574448       -15.6315
  25   2.0000      -0.555681       -15.1208
  26   2.0000      -0.523521       -14.2457
  27   2.0000      -0.505830       -13.7643
  28   2.0000      -0.495745       -13.4899
  29   2.0000      -0.444189       -12.0870
  30   2.0000      -0.432043       -11.7565
  31   2.0000      -0.341014        -9.2795
  32   2.0000      -0.283132        -7.7044
  33   0.0000       0.109603         2.9825
  34   0.0000       0.132183         3.5969
  35   0.0000       0.155277         4.2253
  36   0.0000       0.160558         4.3690
  37   0.0000       0.183002         4.9797

E(0)                                       ...   -399.741525414
E(0)                                       ...   -399.741525414
E(CORR)(strong-pairs)                      ...     -1.577284565
E(CORR)(weak-pairs)                        ...     -0.006553030
E(CORR)(corrected)                         ...     -1.583837595
E(TOT)                                     ...   -401.325363009

MULLIKEN ATOMIC CHARGES
-----------------------
   0 O :   -0.363848
   1 C :    0.228586
   2 C :   -0.251209
   3 H :    0.170559
   4 C :   -0.229270
   5 H :    0.163310
   6 C :    0.175373
   7 N :   -0.554120
   8 H :    0.285849
   9 H :    0.298727
  10 C :   -0.256088
  11 H :    0.165783
  12 C :   -0.231679
  13 H :    0.179402
  14 C :   -0.219069
  15 H :    0.154689
  16 H :    0.148113
  17 H :    0.134891
Sum of atomic charges:   -0.0000000

LOEWDIN ATOMIC CHARGES
----------------------
   0 O :    0.141322
   1 C :   -0.262743
   2 C :   -0.139894
   3 H :    0.157837
   4 C :   -0.148035
   5 H :    0.149075
   6 C :   -0.236529
   7 N :   -0.089995
   8 H :    0.181860
   9 H :    0.183141
  10 C :   -0.146970
  11 H :    0.155445
  12 C :   -0.124245
  13 H :    0.153535
  14 C :   -0.323078
  15 H :    0.116149
  16 H :    0.112935
  17 H :    0.120191

  Mayer bond orders larger than 0.100000
B(  0-O ,  1-C ) :   0.8961 B(  0-O , 14-C ) :   0.8263 B(  1-C ,  2-C ) :   1.3640
B(  1-C , 12-C ) :   1.2343 B(  2-C ,  3-H ) :   0.9255 B(  2-C ,  4-C ) :   1.2945
B(  4-C ,  5-H ) :   0.9168 B(  4-C ,  6-C ) :   1.3156 B(  6-C ,  7-N ) :   1.0458
B(  6-C , 10-C ) :   1.2269 B(  7-N ,  8-H ) :   0.8556 B(  7-N ,  9-H ) :   0.8456
B( 10-C , 11-H ) :   0.9125 B( 10-C , 12-C ) :   1.3373 B( 12-C , 13-H ) :   0.9183
B( 14-C , 15-H ) :   0.9216 B( 14-C , 16-H ) :   0.9180 B( 14-C , 17-H ) :   0.9196

-----------------------------------------------------------------------------
         ABSORPTION SPECTRUM VIA TRANSITION ELECTRIC DIPOLE MOMENTS
-----------------------------------------------------------------------------
State   Energy  Wavelength   fosc         T2         TX        TY        TZ
        (cm-1)    (nm)                  (au**2)     (au)      (au)      (au)
-----------------------------------------------------------------------------
   1   32088.6    311.6   0.047150289   0.48374   0.20912   0.57789   0.32451
   2   42119.9    237.4   0.320405281   2.50431   1.50365   0.39459   0.29460
   3   49087.7    203.7   0.006321494   0.04240   0.07193   0.13970   0.12709
   4   52150.5    191.8   0.436451351   2.75520   0.15131   1.52244   0.64375
   5   51205.4    195.3   0.019713167   0.12674   0.13919   0.15931   0.12584
   6   54502.3    183.5   0.768835924   4.64402   2.04044   0.55531   0.41333
   7   57241.4    174.7   0.004520047   0.02600   0.02059   0.08807   0.12073
   8   58041.7    172.3   0.006234829   0.03536   0.10565   0.14392   0.04148
   9   60524.4    165.2   0.226297239   1.23091   0.83475   0.60031   0.41493
  10   66796.6    149.7   0.018124679   0.08933   0.04927   0.21836   0.19791

FINAL SINGLE POINT ENERGY      -401.179156583759

DIPOLE MOMENT
-------------
                                X             Y             Z
Electronic contribution:     -1.07563      -0.40947       2.37644
Nuclear contribution   :      0.05978       0.79780      -2.80013
                        -----------------------------------------
Total Dipole Moment    :     -1.01586       0.38833      -0.42369
                        -----------------------------------------
Magnitude (a.u.)       :      1.16717
Magnitude (Debye)      :      2.96670

Rotational constants in cm-1:     0.137742     0.033368     0.029272
Rotational constants in MHz :  4129.402657  1000.352746   877.547976

                             ****ORCA TERMINATED NORMALLY****
TOTAL RUN TIME: 0 days 0 hours 10 minutes 42 seconds 978 msec
