                         Program Version 4.2.1 -  RELEASE  -
|  1> ! STEOM-DLPNO-CCSD RIJK def2-TZVP def2/JK def2-TZVP/C verytightSCF CPCM(Water)
|  2> %maxcore 1500
|  3> %pal
|  4> nprocs 8
|  5> end
|  6> %mdci
|  7> nroots 10
|  8> DoSOLV true
|  9> maxiter 100
| 10> end
| 11> * xyz 0 1
| 12> H  15.031000  12.493000  12.651000
| 13> C  15.105000  13.175000  13.459000
| 14> C  13.964000  13.399000  14.203000
| 15> H  13.098000  12.760000  14.083000
| 16> C  13.949000  14.379000  15.221000
| 17> H  13.130000  14.369000  15.887000
| 18> C  15.060000  15.164000  15.491000
| 19> N  15.095000  16.058000  16.622000
| 20> H  15.968000  16.617000  16.504000
| 21> H  14.291000  16.703000  16.761000
| 22> C  16.252000  14.893000  14.758000
| 23> H  17.174000  15.384000  15.046000
| 24> C  16.244000  13.952000  13.681000
| 25> H  17.214000  13.853000  13.097000
| 26> **                         ****END OF INPUT****

CARTESIAN COORDINATES (ANGSTROEM)
---------------------------------
  H     15.031000   12.493000   12.651000
  C     15.105000   13.175000   13.459000
  C     13.964000   13.399000   14.203000
  H     13.098000   12.760000   14.083000
  C     13.949000   14.379000   15.221000
  H     13.130000   14.369000   15.887000
  C     15.060000   15.164000   15.491000
  N     15.095000   16.058000   16.622000
  H     15.968000   16.617000   16.504000
  H     14.291000   16.703000   16.761000
  C     16.252000   14.893000   14.758000
  H     17.174000   15.384000   15.046000
  C     16.244000   13.952000   13.681000
  H     17.214000   13.853000   13.097000

 Total Charge           Charge          ....    0
 Multiplicity           Mult            ....    1
 Number of Electrons    NEL             ....   50
 Basis Dimension        Dim             ....  259

ORBITAL ENERGIES
----------------

  NO   OCC          E(Eh)            E(eV)
   0   2.0000     -15.564959      -423.5441
   1   2.0000     -11.281578      -306.9873
   2   2.0000     -11.248683      -306.0922
   3   2.0000     -11.235338      -305.7291
   4   2.0000     -11.234980      -305.7193
   5   2.0000     -11.222309      -305.3746
   6   2.0000     -11.222052      -305.3676
   7   2.0000      -1.202530       -32.7225
   8   2.0000      -1.122571       -30.5467
   9   2.0000      -1.006094       -27.3772
  10   2.0000      -0.989477       -26.9250
  11   2.0000      -0.829910       -22.5830
  12   2.0000      -0.807215       -21.9654
  13   2.0000      -0.698938       -19.0191
  14   2.0000      -0.664848       -18.0914
  15   2.0000      -0.649021       -17.6608
  16   2.0000      -0.598952       -16.2983
  17   2.0000      -0.587041       -15.9742
  18   2.0000      -0.571982       -15.5644
  19   2.0000      -0.526189       -14.3183
  20   2.0000      -0.505323       -13.7505
  21   2.0000      -0.492599       -13.4043
  22   2.0000      -0.449518       -12.2320
  23   2.0000      -0.333604        -9.0778
  24   2.0000      -0.309109        -8.4113
  25   0.0000       0.111929         3.0457
  26   0.0000       0.133554         3.6342
  27   0.0000       0.153915         4.1882
  28   0.0000       0.171676         4.6715
  29   0.0000       0.185672         5.0524

E(0)                                       ...   -285.830510758
E(0)                                       ...   -285.830510758
E(CORR)(strong-pairs)                      ...     -1.168326833
E(CORR)(weak-pairs)                        ...     -0.003653319
E(CORR)(corrected)                         ...     -1.171980152
E(TOT)                                     ...   -287.002490910

MULLIKEN ATOMIC CHARGES
-----------------------
   0 H :    0.160022
   1 C :   -0.166115
   2 C :   -0.173110
   3 H :    0.166760
   4 C :   -0.248126
   5 H :    0.161786
   6 C :    0.175043
   7 N :   -0.557474
   8 H :    0.277581
   9 H :    0.296486
  10 C :   -0.257963
  11 H :    0.166803
  12 C :   -0.176758
  13 H :    0.175066
Sum of atomic charges:   -0.0000000

LOEWDIN ATOMIC CHARGES
----------------------
   0 H :    0.146218
   1 C :   -0.183008
   2 C :   -0.150822
   3 H :    0.153684
   4 C :   -0.141961
   5 H :    0.147147
   6 C :   -0.234589
   7 N :   -0.133847
   8 H :    0.188652
   9 H :    0.186904
  10 C :   -0.139041
  11 H :    0.149684
  12 C :   -0.152974
  13 H :    0.163952

  Mayer bond orders larger than 0.100000
B(  0-H ,  1-C ) :   0.9328 B(  1-C ,  2-C ) :   1.3443 B(  1-C , 12-C ) :   1.3051
B(  2-C ,  3-H ) :   0.9272 B(  2-C ,  4-C ) :   1.3113 B(  4-C ,  5-H ) :   0.9206
B(  4-C ,  6-C ) :   1.3129 B(  6-C ,  7-N ) :   1.0028 B(  6-C , 10-C ) :   1.2578
B(  7-N ,  8-H ) :   0.8587 B(  7-N ,  9-H ) :   0.8421 B( 10-C , 11-H ) :   0.9193
B( 10-C , 12-C ) :   1.3433 B( 12-C , 13-H ) :   0.9132

-----------------------------------------------------------------------------
         ABSORPTION SPECTRUM VIA TRANSITION ELECTRIC DIPOLE MOMENTS
-----------------------------------------------------------------------------
State   Energy  Wavelength   fosc         T2         TX        TY        TZ
        (cm-1)    (nm)                  (au**2)     (au)      (au)      (au)
-----------------------------------------------------------------------------
   1   35906.6    278.5   0.021722656   0.19917   0.42742   0.10623   0.07107
   2   46624.4    214.5   0.174900953   1.23497   0.04757   0.75585   0.81326
   3   53407.9    187.2   0.497931270   3.06930   1.67979   0.23764   0.42794
   4   53714.3    186.2   0.244143453   1.49634   0.18180   0.95464   0.73264
   5   54186.0    184.5   0.669385009   4.06691   0.01083   1.33226   1.51164
   6   60887.3    164.2   0.020627468   0.11153   0.19762   0.22943   0.14077
   7   64241.1    155.7   0.056177257   0.28789   0.49331   0.16130   0.13597
   8   66107.3    151.3   0.033035457   0.16452   0.37687   0.14783   0.02392
   9   68022.7    147.0   0.000861019   0.00417   0.05358   0.01876   0.03036
  10   69281.3    144.3   0.034241094   0.16271   0.24027   0.12439   0.29913

FINAL SINGLE POINT ENERGY      -286.838888533051

DIPOLE MOMENT
-------------
                                X             Y             Z
Electronic contribution:     -0.20271      -0.13582      -0.32111
Nuclear contribution   :      0.20556       0.78471       0.26519
                        -----------------------------------------
Total Dipole Moment    :      0.00285       0.64889      -0.05592
                        -----------------------------------------
Magnitude (a.u.)       :      0.65130
Magnitude (Debye)      :      1.65548

Rotational constants in cm-1:     0.187226     0.083676     0.058029
Rotational constants in MHz :  5612.886380  2508.538573  1739.665910

                             ****ORCA TERMINATED NORMALLY****
TOTAL RUN TIME: 0 days 0 hours 7 minutes 7 seconds 56 msec
