                         Program Version 4.2.1 -  RELEASE  -
|  1> ! STEOM-DLPNO-CCSD RIJK def2-TZVP def2/JK def2-TZVP/C verytightSCF CPCM(Water)
|  2> %maxcore 1500
|  3> %pal
|  4> nprocs 8
|  5> end
|  6> %mdci
|  7> nroots 10
|  8> DoSOLV true
|  9> maxiter 100
| 10> end
| 11> * xyz 0 1
| 12> H  5.742000  1.969000  7.081000
| 13> C  5.562000  2.887000  6.470000
| 14> C  4.716000  2.771000  5.379000
| 15> H  4.393000  1.823000  4.825000
| 16> C  4.492000  3.930000  4.529000
| 17> H  3.924000  3.742000  3.565000
| 18> C  4.998000  5.205000  4.841000
| 19> H  4.726000  6.081000  4.241000
| 20> C  5.827000  5.253000  6.010000
| 21> C  6.142000  4.136000  6.777000
| 22> H  6.764000  4.288000  7.687000
| 23> O  6.447000  6.447000  6.447000
| 24> C  6.443000  7.589000  5.602000
| 25> H  7.170000  8.323000  6.082000
| 26> H  6.680000  7.323000  4.616000
| 27> H  5.476000  7.987000  5.539000
| 28> **                         ****END OF INPUT****

CARTESIAN COORDINATES (ANGSTROEM)
---------------------------------
  H      5.742000    1.969000    7.081000
  C      5.562000    2.887000    6.470000
  C      4.716000    2.771000    5.379000
  H      4.393000    1.823000    4.825000
  C      4.492000    3.930000    4.529000
  H      3.924000    3.742000    3.565000
  C      4.998000    5.205000    4.841000
  H      4.726000    6.081000    4.241000
  C      5.827000    5.253000    6.010000
  C      6.142000    4.136000    6.777000
  H      6.764000    4.288000    7.687000
  O      6.447000    6.447000    6.447000
  C      6.443000    7.589000    5.602000
  H      7.170000    8.323000    6.082000
  H      6.680000    7.323000    4.616000
  H      5.476000    7.987000    5.539000

 Total Charge           Charge          ....    0
 Multiplicity           Mult            ....    1
 Number of Electrons    NEL             ....   58
 Basis Dimension        Dim             ....  296

ORBITAL ENERGIES
----------------

  NO   OCC          E(Eh)            E(eV)
   0   2.0000     -20.579069      -559.9849
   1   2.0000     -11.313246      -307.8491
   2   2.0000     -11.267007      -306.5909
   3   2.0000     -11.254909      -306.2616
   4   2.0000     -11.251533      -306.1698
   5   2.0000     -11.245944      -306.0177
   6   2.0000     -11.240052      -305.8574
   7   2.0000     -11.238014      -305.8019
   8   2.0000      -1.389472       -37.8095
   9   2.0000      -1.141412       -31.0594
  10   2.0000      -1.016966       -27.6731
  11   2.0000      -1.011596       -27.5269
  12   2.0000      -0.930915       -25.3315
  13   2.0000      -0.827787       -22.5252
  14   2.0000      -0.801471       -21.8091
  15   2.0000      -0.709677       -19.3113
  16   2.0000      -0.653254       -17.7759
  17   2.0000      -0.652688       -17.7605
  18   2.0000      -0.647454       -17.6181
  19   2.0000      -0.612926       -16.6786
  20   2.0000      -0.582735       -15.8570
  21   2.0000      -0.571721       -15.5573
  22   2.0000      -0.525045       -14.2872
  23   2.0000      -0.521454       -14.1895
  24   2.0000      -0.497124       -13.5274
  25   2.0000      -0.483457       -13.1555
  26   2.0000      -0.459640       -12.5074
  27   2.0000      -0.346007        -9.4153
  28   2.0000      -0.318418        -8.6646
  29   0.0000       0.109621         2.9830
  30   0.0000       0.124240         3.3807
  31   0.0000       0.155572         4.2333
  32   0.0000       0.169791         4.6203
  33   0.0000       0.186694         5.0802

E(0)                                       ...   -344.685556829
E(0)                                       ...   -344.685556829
E(CORR)(strong-pairs)                      ...     -1.368062717
E(CORR)(weak-pairs)                        ...     -0.004823145
E(CORR)(corrected)                         ...     -1.372885862
E(TOT)                                     ...   -346.058442691

MULLIKEN ATOMIC CHARGES
-----------------------
   0 H :    0.174515
   1 C :   -0.129573
   2 C :   -0.205565
   3 H :    0.175408
   4 C :   -0.159979
   5 H :    0.177123
   6 C :   -0.323744
   7 H :    0.190518
   8 C :    0.298853
   9 C :   -0.265792
  10 H :    0.169437
  11 O :   -0.321588
  12 C :   -0.237841
  13 H :    0.169746
  14 H :    0.143331
  15 H :    0.145151
Sum of atomic charges:   -0.0000000

LOEWDIN ATOMIC CHARGES
----------------------
   0 H :    0.163411
   1 C :   -0.159472
   2 C :   -0.183317
   3 H :    0.166857
   4 C :   -0.148874
   5 H :    0.161775
   6 C :   -0.146103
   7 H :    0.162274
   8 C :   -0.214120
   9 C :   -0.142079
  10 H :    0.165161
  11 O :    0.162628
  12 C :   -0.326054
  13 H :    0.134877
  14 H :    0.102335
  15 H :    0.100699

  Mayer bond orders larger than 0.100000
B(  0-H ,  1-C ) :   0.9157 B(  1-C ,  2-C ) :   1.3781 B(  1-C ,  9-C ) :   1.2707
B(  2-C ,  3-H ) :   0.9028 B(  2-C ,  4-C ) :   1.2697 B(  4-C ,  5-H ) :   0.9051
B(  4-C ,  6-C ) :   1.3482 B(  6-C ,  7-H ) :   0.9114 B(  6-C ,  8-C ) :   1.2087
B(  8-C ,  9-C ) :   1.3305 B(  8-C , 11-O ) :   1.0019 B(  9-C , 10-H ) :   0.9174
B( 11-O , 12-C ) :   0.8374 B( 12-C , 13-H ) :   0.9108 B( 12-C , 14-H ) :   0.9321
B( 12-C , 15-H ) :   0.9352

-----------------------------------------------------------------------------
         ABSORPTION SPECTRUM VIA TRANSITION ELECTRIC DIPOLE MOMENTS
-----------------------------------------------------------------------------
State   Energy  Wavelength   fosc         T2         TX        TY        TZ
        (cm-1)    (nm)                  (au**2)     (au)      (au)      (au)
-----------------------------------------------------------------------------
   1   36052.9    277.4   0.022741206   0.20766   0.25344   0.08135   0.36985
   2   47210.8    211.8   0.190554089   1.32878   0.27278   1.11699   0.07953
   3   54972.5    181.9   0.804713581   4.81916   1.28277   0.52311   1.67575
   4   55611.4    179.8   0.967209837   5.72575   0.40120   2.26852   0.38657
   5   59528.5    168.0   0.014053637   0.07772   0.20245   0.13615   0.03826
   6   61183.2    163.4   0.092340648   0.49686   0.29170   0.55158   0.25996
   7   61438.9    162.8   0.041978581   0.22494   0.11498   0.17661   0.27849
   8   65016.6    153.8   0.012308253   0.06232   0.17510   0.13285   0.11753
   9   67247.4    148.7   0.001604739   0.00786   0.05935   0.05806   0.01744
  10   67315.9    148.6   0.002965525   0.01450   0.10878   0.01312   0.04921

FINAL SINGLE POINT ENERGY      -345.894173392781

DIPOLE MOMENT
-------------
                                X             Y             Z
Electronic contribution:     -0.11621      -2.11466       1.58652
Nuclear contribution   :     -0.01277       2.44191      -2.28107
                        -----------------------------------------
Total Dipole Moment    :     -0.12897       0.32725      -0.69455
                        -----------------------------------------
Magnitude (a.u.)       :      0.77854
Magnitude (Debye)      :      1.97890

Rotational constants in cm-1:     0.163296     0.050867     0.039129
Rotational constants in MHz :  4895.502921  1524.953226  1173.052641

                             ****ORCA TERMINATED NORMALLY****
TOTAL RUN TIME: 0 days 0 hours 7 minutes 18 seconds 137 msec
