                         Program Version 4.2.1 -  RELEASE  -
|  1> ! STEOM-DLPNO-CCSD RIJK def2-TZVP def2/JK def2-TZVP/C verytightSCF CPCM(Water)
|  2> %maxcore 1500
|  3> %pal
|  4> nprocs 8
|  5> end
|  6> %mdci
|  7> nroots 10
|  8> DoSOLV true
|  9> maxiter 100
| 10> end
| 11> * xyz 0 1
| 12> H  6.578000  1.765000  7.451000
| 13> C  5.858000  2.598000  7.356000
| 14> C  4.475000  2.591000  7.671000
| 15> H  3.883000  1.701000  7.873000
| 16> C  3.722000  3.806000  7.685000
| 17> H  2.690000  3.832000  8.039000
| 18> C  4.404000  5.020000  7.349000
| 19> H  3.808000  5.940000  7.311000
| 20> C  5.668000  4.978000  6.739000
| 21> C  6.453000  3.792000  6.870000
| 22> H  7.464000  3.803000  6.387000
| 23> O  6.200000  6.200000  6.200000
| 24> H  7.192000  6.233000  6.501000
| 25> **                         ****END OF INPUT****

CARTESIAN COORDINATES (ANGSTROEM)
---------------------------------
  H      6.578000    1.765000    7.451000
  C      5.858000    2.598000    7.356000
  C      4.475000    2.591000    7.671000
  H      3.883000    1.701000    7.873000
  C      3.722000    3.806000    7.685000
  H      2.690000    3.832000    8.039000
  C      4.404000    5.020000    7.349000
  H      3.808000    5.940000    7.311000
  C      5.668000    4.978000    6.739000
  C      6.453000    3.792000    6.870000
  H      7.464000    3.803000    6.387000
  O      6.200000    6.200000    6.200000
  H      7.192000    6.233000    6.501000

 Total Charge           Charge          ....    0
 Multiplicity           Mult            ....    1
 Number of Electrons    NEL             ....   50
 Basis Dimension        Dim             ....  253

ORBITAL ENERGIES
----------------

  NO   OCC          E(Eh)            E(eV)
   0   2.0000     -20.592107      -560.3397
   1   2.0000     -11.310869      -307.7844
   2   2.0000     -11.255207      -306.2697
   3   2.0000     -11.251743      -306.1755
   4   2.0000     -11.247901      -306.0709
   5   2.0000     -11.243699      -305.9566
   6   2.0000     -11.241177      -305.8880
   7   2.0000      -1.363018       -37.0896
   8   2.0000      -1.135336       -30.8941
   9   2.0000      -1.011402       -27.5217
  10   2.0000      -0.997409       -27.1409
  11   2.0000      -0.830011       -22.5858
  12   2.0000      -0.814332       -22.1591
  13   2.0000      -0.708349       -19.2752
  14   2.0000      -0.670570       -18.2471
  15   2.0000      -0.637091       -17.3361
  16   2.0000      -0.619827       -16.8664
  17   2.0000      -0.584149       -15.8955
  18   2.0000      -0.582078       -15.8392
  19   2.0000      -0.538995       -14.6668
  20   2.0000      -0.509917       -13.8756
  21   2.0000      -0.497194       -13.5293
  22   2.0000      -0.474307       -12.9066
  23   2.0000      -0.339960        -9.2508
  24   2.0000      -0.325822        -8.8661
  25   0.0000       0.103828         2.8253
  26   0.0000       0.117864         3.2073
  27   0.0000       0.159338         4.3358
  28   0.0000       0.169011         4.5990
  29   0.0000       0.188987         5.1426

E(0)                                       ...   -305.650156855
E(0)                                       ...   -305.650156855
E(CORR)(strong-pairs)                      ...     -1.195465571
E(CORR)(weak-pairs)                        ...     -0.003648895
E(CORR)(corrected)                         ...     -1.199114466
E(TOT)                                     ...   -306.849271320

MULLIKEN ATOMIC CHARGES
-----------------------
   0 H :    0.181472
   1 C :   -0.164146
   2 C :   -0.185429
   3 H :    0.173079
   4 C :   -0.156219
   5 H :    0.185300
   6 C :   -0.221441
   7 H :    0.164999
   8 C :    0.191069
   9 C :   -0.231167
  10 H :    0.180879
  11 O :   -0.506595
  12 H :    0.388201
Sum of atomic charges:    0.0000000

LOEWDIN ATOMIC CHARGES
----------------------
   0 H :    0.161472
   1 C :   -0.149393
   2 C :   -0.160657
   3 H :    0.152135
   4 C :   -0.139536
   5 H :    0.155029
   6 C :   -0.142223
   7 H :    0.156601
   8 C :   -0.239880
   9 C :   -0.147193
  10 H :    0.163960
  11 O :   -0.058669
  12 H :    0.248355

  Mayer bond orders larger than 0.100000
B(  0-H ,  1-C ) :   0.9089 B(  1-C ,  2-C ) :   1.2946 B(  1-C ,  9-C ) :   1.3297
B(  2-C ,  3-H ) :   0.9151 B(  2-C ,  4-C ) :   1.3231 B(  4-C ,  5-H ) :   0.9126
B(  4-C ,  6-C ) :   1.2706 B(  6-C ,  7-H ) :   0.9208 B(  6-C ,  8-C ) :   1.2939
B(  8-C ,  9-C ) :   1.2713 B(  8-C , 11-O ) :   0.9726 B(  9-C , 10-H ) :   0.9029
B( 11-O , 12-H ) :   0.7858

-----------------------------------------------------------------------------
         ABSORPTION SPECTRUM VIA TRANSITION ELECTRIC DIPOLE MOMENTS
-----------------------------------------------------------------------------
State   Energy  Wavelength   fosc         T2         TX        TY        TZ
        (cm-1)    (nm)                  (au**2)     (au)      (au)      (au)
-----------------------------------------------------------------------------
   1   35813.4    279.2   0.009375768   0.08619   0.25077   0.14446   0.04858
   2   48707.8    205.3   0.062407387   0.42181   0.08516   0.54737   0.33758
   3   54385.1    183.9   0.779323709   4.71752   0.30041   2.08926   0.50410
   4   54798.2    182.5   0.816306205   4.90413   2.11820   0.22371   0.59969
   5   58876.8    169.8   0.136263385   0.76192   0.30922   0.81001   0.02539
   6   59981.1    166.7   0.047784312   0.26227   0.40752   0.19580   0.18779
   7   61509.2    162.6   0.025532715   0.13666   0.17903   0.30064   0.11879
   8   63364.9    157.8   0.017566407   0.09127   0.21221   0.05061   0.20791
   9   67366.6    148.4   0.010878250   0.05316   0.22643   0.02286   0.02863
  10   70712.9    141.4   0.008533627   0.03973   0.09086   0.09925   0.14508

FINAL SINGLE POINT ENERGY      -306.686093383929

DIPOLE MOMENT
-------------
                                X             Y             Z
Electronic contribution:      0.65911       1.40718      -0.57402
Nuclear contribution   :     -0.13382      -1.84032       0.92386
                        -----------------------------------------
Total Dipole Moment    :      0.52530      -0.43314       0.34983
                        -----------------------------------------
Magnitude (a.u.)       :      0.76546
Magnitude (Debye)      :      1.94564

Rotational constants in cm-1:     0.180663     0.083071     0.057279
Rotational constants in MHz :  5416.131551  2490.403423  1717.171817

                             ****ORCA TERMINATED NORMALLY****
TOTAL RUN TIME: 0 days 0 hours 7 minutes 16 seconds 942 msec
